 Entering Gaussian System, Link 0=/local/share2/GDV.J02.XEON//gdv/gdv
 Initial command:
 /local/share2/GDV.J02.XEON//gdv/l1.exe "/local/scratch/fulvio/gdvrun50899/Gau-50921.inp" -scrdir="/local/scratch/fulvio/gdvrun50899/"
 Entering Link 1 = /local/share2/GDV.J02.XEON//gdv/l1.exe PID=     50922.
  
 Copyright (c) 1988-2019, Gaussian, Inc.  All Rights Reserved.
  
 This is the private, development version of
 the Gaussian(R) DV system of programs. It is based on
 the Gaussian(R) 16 system (copyright 2016, Gaussian, Inc.),
 the Gaussian(R) 09 system (copyright 2009, Gaussian, Inc.),
 the Gaussian(R) 03 system (copyright 2003, Gaussian, Inc.),
 the Gaussian(R) 98 system (copyright 1998, Gaussian, Inc.),
 the Gaussian(R) 94 system (copyright 1995, Gaussian, Inc.),
 the Gaussian 92(TM) system (copyright 1992, Gaussian, Inc.),
 the Gaussian 90(TM) system (copyright 1990, Gaussian, Inc.),
 the Gaussian 88(TM) system (copyright 1988, Gaussian, Inc.),
 the Gaussian 86(TM) system (copyright 1986, Carnegie Mellon
 University), and the Gaussian 82(TM) system (copyright 1983,
 Carnegie Mellon University). Gaussian is a federally registered
 trademark of Gaussian, Inc.
  
 This software contains proprietary and confidential information,
 including trade secrets, belonging to Gaussian, Inc.
  
 This software is provided under written license and may be
 used, copied, transmitted, or stored only in accord with that
 written license.
  
 The following legend is applicable only to US Government
 contracts under FAR:
  
                    RESTRICTED RIGHTS LEGEND
  
 Use, reproduction and disclosure by the US Government is
 subject to restrictions as set forth in subparagraphs (a)
 and (c) of the Commercial Computer Software - Restricted
 Rights clause in FAR 52.227-19.
  
 Gaussian, Inc.
 340 Quinnipiac St., Bldg. 40, Wallingford CT 06492
  
  
 ---------------------------------------------------------------
 Warning -- This program may not be used in any manner that
 competes with the business of Gaussian, Inc. or will provide
 assistance to any competitor of Gaussian, Inc.  The licensee
 of this program is prohibited from giving any competitor of
 Gaussian, Inc. access to this program.  By using this program,
 the user acknowledges that Gaussian, Inc. is engaged in the
 business of creating and licensing software in the field of
 computational chemistry and represents and warrants to the
 licensee that it is not a competitor of Gaussian, Inc. and that
 it will not use this program in any manner prohibited above.
 ---------------------------------------------------------------
  

 Cite this work as:
 Gaussian Development Version, Revision J.02,
 M. J. Frisch, G. W. Trucks, H. B. Schlegel, G. E. Scuseria, 
 M. A. Robb, J. R. Cheeseman, G. Scalmani, V. Barone, 
 G. A. Petersson, H. Nakatsuji, X. Li, M. Caricato, A. V. Marenich, 
 J. Bloino, B. G. Janesko, R. Gomperts, B. Mennucci, H. P. Hratchian, 
 J. V. Ortiz, A. F. Izmaylov, J. L. Sonnenberg, D. Williams-Young, 
 F. Ding, F. Lipparini, F. Egidi, J. Goings, B. Peng, A. Petrone, 
 T. Henderson, D. Ranasinghe, V. G. Zakrzewski, J. Gao, N. Rega, 
 G. Zheng, W. Liang, M. Hada, M. Ehara, K. Toyota, R. Fukuda, 
 J. Hasegawa, M. Ishida, T. Nakajima, Y. Honda, O. Kitao, H. Nakai, 
 T. Vreven, K. Throssell, J. A. Montgomery, Jr., J. E. Peralta, 
 F. Ogliaro, M. J. Bearpark, J. J. Heyd, E. N. Brothers, K. N. Kudin, 
 V. N. Staroverov, T. A. Keith, R. Kobayashi, J. Normand, 
 K. Raghavachari, A. P. Rendell, J. C. Burant, S. S. Iyengar, 
 J. Tomasi, M. Cossi, J. M. Millam, M. Klene, C. Adamo, R. Cammi, 
 J. W. Ochterski, R. L. Martin, K. Morokuma, O. Farkas, 
 J. B. Foresman, and D. J. Fox, Gaussian, Inc., Wallingford CT, 2018.
 
 ******************************************
 Gaussian DV:  ES64L-GDVRevJ.02 16-Jan-2019
                22-Jul-2020 
 ******************************************
 %subst l121 /local/home/fulvio/workings_proj_scheme/working_scalar_default_print
 _mu_j02_xeon/l121
 %nproc=16
 Will use up to   16 processors via shared memory.
 %mem=32gb
 %chk=admp_nma_b3lyp_631gdp_300k_5ps_ts02_default_emass01.chk
 ----------------------------------------------------------------------
 # b3lyp/6-31g(d,p) admp=(cholesky,maxpoints=25000,ReadMWVelocity,steps
 ize=2000,emass=1000) nosymm gfoldprint units=au
 ----------------------------------------------------------------------
 1/8=2000,9=4,20=1,26=3,29=20000,38=1,42=25000,76=1000,172=1/1,21;
 2/12=2,15=1,17=6,18=5,29=2,40=1/2;
 3/5=1,6=6,7=101,11=2,24=1,25=1,30=1,65=-1,71=1,74=-5,89=400,90=600/1,2,3;
 4//1;
 5/5=2,14=200,38=5,73=2,134=2000/2;
 6/7=2,8=2,9=2,10=2,28=1/1;
 7/7=1,30=1,127=-100/1,2,3,16;
 1/8=2000,9=4,26=3,42=25000,76=1000/21(2);
 2/15=1,29=1/2;
 99/12=1/99;
 2/15=1,29=1/2;
 3/5=1,6=6,7=101,11=2,25=1,30=1,65=-1,71=1,74=-5,89=400,90=600/1,2,3;
 5/5=2,14=100,73=2,134=2000/2;
 7/7=1,30=1,127=-100/1,2,3,16;
 1/8=2000,9=4,26=3,42=25000,76=1000/21(-4);
 2/15=1,29=1/2;
 6/7=2,8=2,9=2,10=2,19=2,28=1/1;
 99/9=1,12=1/99;
 -------------------
 Title Card Required
 -------------------
 Symbolic Z-matrix:
 Charge =  0 Multiplicity = 1
 C                     0.81911   0.00521  -0.3921 
 O                     0.42597  -1.06839  -2.39767 
 C                     3.61142   0.71342   0.34042 
 H                     4.21484   2.49112  -0.60386 
 H                     3.77622   1.05325   2.49691 
 H                     4.7683   -0.87095  -0.29367 
 N                    -1.03029   0.44389   1.36762 
 H                    -0.45518   0.97104   3.12244 
 C                    -3.71079  -0.08657   1.0083 
 H                    -4.51182   0.43169  -0.83193 
 H                    -4.07852  -2.12358   1.42543 
 H                    -4.72895   1.3101    2.34499 
 
 TRJ-TRJ-TRJ-TRJ-TRJ-TRJ-TRJ-TRJ-TRJ-TRJ-TRJ-TRJ-TRJ-TRJ-TRJ-TRJ-TRJ-TRJ
 ------------------------------------------------------------------------
 INPUT DATA FOR L121
 ------------------------------------------------------------------------

 General parameters:
 Maximum Steps                =   25000
 Random Number Generator Seed =    398465
 Time Step                    =  0.20000 femtosec
 Ficticious electronic mass   =  0.10000 amu
 MW individual basis funct.   = True 
 Initial nuclear kin. energy  =  0.01566 hartree
 Initial electr. kin. energy  =  0.00000 hartree
   Initial electr. KE scheme  =  0
 Multitime step - NDtrC       =       1
 Multitime step - NDtrP       =       1
 No Thermostats chosen to control nuclear temperature

 Integration parameters:

 Follow Rxn Path (DVV)        = False
 Constraint Scheme            =      10
 Projection of angular mom.   = True 
 Rotate density with nuclei   = True 

 Initial mass-weighed velocity (sqrt(amu)*bohr/sec) for trajectory 
 I=    1 X=   7.958592772485D+12 Y=  -3.161799914307D+12 Z=  -3.856483055509D+13
 I=    2 X=  -2.281077377089D+13 Y=   1.285003370936D+13 Z=   3.266931383075D+13
 I=    3 X=   3.039292928663D+13 Y=  -7.278427666398D+12 Z=   1.411055659112D+13
 I=    4 X=   1.049680708915D+13 Y=  -2.545157712027D+13 Z=  -3.631523368091D+13
 I=    5 X=   6.477452174373D+13 Y=   9.461683629980D+12 Z=  -9.040925743551D+12
 I=    6 X=   3.313907193127D+13 Y=   1.666165617364D+13 Z=   2.895949538486D+11
 I=    7 X=  -3.701842360848D+13 Y=   1.809402497226D+13 Z=  -3.376042189925D+12
 I=    8 X=   1.406133722176D+13 Y=  -1.380398808968D+12 Z=   5.452914755207D+13
 I=    9 X=  -3.734428546703D+13 Y=  -2.924246197894D+13 Z=  -8.161446287435D+12
 I=   10 X=   7.375102593617D+13 Y=   1.763549943505D+13 Z=   2.536795951970D+13
 I=   11 X=   3.924676581787D+13 Y=  -2.032437880712D+13 Z=  -2.830634806975D+13
 I=   12 X=  -1.008474582512D+13 Y=   2.168991432280D+13 Z=  -1.154353217802D+13
 ------------------------------------------------------------------------
 TRJ-TRJ-TRJ-TRJ-TRJ-TRJ-TRJ-TRJ-TRJ-TRJ-TRJ-TRJ-TRJ-TRJ-TRJ-TRJ-TRJ-TRJ
 ---------------------------------------------------------------------------------------------------
                            Z-MATRIX (ANGSTROMS AND DEGREES)
   CD    Cent   Atom    N1       Length/X        N2       Alpha/Y        N3        Beta/Z          J
 ---------------------------------------------------------------------------------------------------
      1      1  C        0   0.433455          0.002755         -0.207493
      2      2  O        0   0.225413         -0.565365         -1.268790
      3      3  C        0   1.911082          0.377528          0.180143
      4      4  H        0   2.230397          1.318244         -0.319550
      5      5  H        0   1.998287          0.557357          1.321308
      6      6  H        0   2.523275         -0.460889         -0.155401
      7      7  N        0  -0.545204          0.234895          0.723711
      8      8  H        0  -0.240871          0.513854          1.652324
      9      9  C        0  -1.963666         -0.045810          0.533568
     10     10  H        0  -2.387554          0.228440         -0.440239
     11     11  H        0  -2.158258         -1.123748          0.754303
     12     12  H        0  -2.502451          0.693277          1.240916
 ---------------------------------------------------------------------------------------------------
                         Z-Matrix orientation:                         
 ---------------------------------------------------------------------
 Center     Atomic      Atomic             Coordinates (Angstroms)
 Number     Number       Type             X           Y           Z
 ---------------------------------------------------------------------
      1          6           0        0.433455    0.002755   -0.207493
      2          8           0        0.225413   -0.565365   -1.268790
      3          6           0        1.911082    0.377528    0.180143
      4          1           0        2.230397    1.318244   -0.319550
      5          1           0        1.998287    0.557357    1.321308
      6          1           0        2.523275   -0.460889   -0.155401
      7          7           0       -0.545204    0.234895    0.723711
      8          1           0       -0.240871    0.513854    1.652324
      9          6           0       -1.963666   -0.045810    0.533568
     10          1           0       -2.387554    0.228440   -0.440239
     11          1           0       -2.158258   -1.123748    0.754303
     12          1           0       -2.502451    0.693277    1.240916
 ---------------------------------------------------------------------
                    Distance matrix (angstroms):
                    1          2          3          4          5
     1  C    0.000000
     2  O    1.221636   0.000000
     3  C    1.572927   2.414526   0.000000
     4  H    2.229813   2.910155   1.112026   0.000000
     5  H    2.256881   3.333496   1.158533   1.823523   0.000000
     6  H    2.141268   2.555528   1.091015   1.810535   1.868986
     7  N    1.370695   2.281300   2.519753   3.156897   2.632575
     8  H    2.043246   3.148815   2.610901   3.262283   2.263911
     9  C    2.509526   2.882793   3.913796   4.492061   4.084289
    10  H    2.839577   2.853808   4.345731   4.746336   4.737809
    11  H    2.985136   3.175938   4.375274   5.135832   4.519344
    12  H    3.345781   3.914593   4.550188   5.022497   4.503507
                    6          7          8          9         10
     6  H    0.000000
     7  N    3.266883   0.000000
     8  H    3.443617   1.016247   0.000000
     9  C    4.558466   1.458418   2.129052   0.000000
    10  H    4.967147   2.179237   3.011400   1.096902   0.000000
    11  H    4.814945   2.109215   2.676669   1.117381   1.818768
    12  H    5.342258   2.075675   2.305687   1.156235   1.748015
                   11         12
    11  H    0.000000
    12  H    1.912286   0.000000
 Symmetry turned off by external request.
 Stoichiometry    C3H7NO
 Framework group  C1[X(C3H7NO)]
 Deg. of freedom    30
 Full point group                 C1      NOp   1
 Rotational constants (GHZ):           9.9660696           3.6440389           2.7696889
 Standard basis: 6-31G(d,p) (6D, 7F)
 ***********************************************************************************************************************************
 *             ATOMIC CENTER             *        ATOMIC ORBITAL       *                     GAUSSIAN FUNCTIONS                    *
 ***********************************************************************************************************************************
 *                                       * FUNCTION    SHELL    SCALE  *                                                           *
 *    ATOM   X-COORD  Y-COORD  Z-COORD   *  NUMBER     TYPE     FACTOR *  EXPONENT    S-COEF      P-COEF      D-COEF      F-COEF   *
 ***********************************************************************************************************************************
 *     C      0.81911  0.00521 -0.39210                                                                                            *
+                                                1   S           1.00                                                               
+                                                                      0.304752D+040.536345D+000.000000D+000.000000D+000.000000D+00 
 *                                                                     0.457370D+030.989452D+000.000000D+000.000000D+000.000000D+00*
 *                                                                     0.103949D+030.159728D+010.000000D+000.000000D+000.000000D+00*
 *                                                                     0.292102D+020.207919D+010.000000D+000.000000D+000.000000D+00*
 *                                                                     0.928666D+010.177417D+010.000000D+000.000000D+000.000000D+00*
 *                                                                     0.316393D+010.612580D+000.000000D+000.000000D+000.000000D+00*
 *                                           2-  5   SP          1.00                                                              *
+                                                                      0.786827D+01-.399556D+000.129608D+010.000000D+000.000000D+00 
 *                                                                     0.188129D+01-.184155D+000.993754D+000.000000D+000.000000D+00*
 *                                                                     0.544249D+000.516390D+000.495953D+000.000000D+000.000000D+00*
 *                                           6-  9   SP          1.00                                                              *
+                                                                      0.168714D+000.187618D+000.154128D+000.000000D+000.000000D+00 
 *                                          10- 15   D           1.00                                                              *
+                                                                      0.800000D+000.000000D+000.000000D+000.111382D+010.000000D+00 
 *---------------------------------------------------------------------------------------------------------------------------------*
 *     O      0.42597 -1.06839 -2.39767                                                                                            *
+                                               16   S           1.00                                                               
+                                                                      0.548467D+040.831724D+000.000000D+000.000000D+000.000000D+00 
 *                                                                     0.825235D+030.153082D+010.000000D+000.000000D+000.000000D+00*
 *                                                                     0.188047D+030.247715D+010.000000D+000.000000D+000.000000D+00*
 *                                                                     0.529645D+020.325628D+010.000000D+000.000000D+000.000000D+00*
 *                                                                     0.168976D+020.279289D+010.000000D+000.000000D+000.000000D+00*
 *                                                                     0.579964D+010.954938D+000.000000D+000.000000D+000.000000D+00*
 *                                          17- 20   SP          1.00                                                              *
+                                                                      0.155396D+02-.617934D+000.311694D+010.000000D+000.000000D+00 
 *                                                                     0.359993D+01-.275721D+000.240144D+010.000000D+000.000000D+00*
 *                                                                     0.101376D+010.814208D+000.105436D+010.000000D+000.000000D+00*
 *                                          21- 24   SP          1.00                                                              *
+                                                                      0.270006D+000.266956D+000.277432D+000.000000D+000.000000D+00 
 *                                          25- 30   D           1.00                                                              *
+                                                                      0.800000D+000.000000D+000.000000D+000.111382D+010.000000D+00 
 *---------------------------------------------------------------------------------------------------------------------------------*
 *     C      3.61142  0.71342  0.34042                                                                                            *
+                                               31   S           1.00                                                               
+                                                                      0.304752D+040.536345D+000.000000D+000.000000D+000.000000D+00 
 *                                                                     0.457370D+030.989452D+000.000000D+000.000000D+000.000000D+00*
 *                                                                     0.103949D+030.159728D+010.000000D+000.000000D+000.000000D+00*
 *                                                                     0.292102D+020.207919D+010.000000D+000.000000D+000.000000D+00*
 *                                                                     0.928666D+010.177417D+010.000000D+000.000000D+000.000000D+00*
 *                                                                     0.316393D+010.612580D+000.000000D+000.000000D+000.000000D+00*
 *                                          32- 35   SP          1.00                                                              *
+                                                                      0.786827D+01-.399556D+000.129608D+010.000000D+000.000000D+00 
 *                                                                     0.188129D+01-.184155D+000.993754D+000.000000D+000.000000D+00*
 *                                                                     0.544249D+000.516390D+000.495953D+000.000000D+000.000000D+00*
 *                                          36- 39   SP          1.00                                                              *
+                                                                      0.168714D+000.187618D+000.154128D+000.000000D+000.000000D+00 
 *                                          40- 45   D           1.00                                                              *
+                                                                      0.800000D+000.000000D+000.000000D+000.111382D+010.000000D+00 
 *---------------------------------------------------------------------------------------------------------------------------------*
 *     H      4.21484  2.49112 -0.60386                                                                                            *
+                                               46   S           1.00                                                               
+                                                                      0.187311D+020.214935D+000.000000D+000.000000D+000.000000D+00 
 *                                                                     0.282539D+010.364571D+000.000000D+000.000000D+000.000000D+00*
 *                                                                     0.640122D+000.415051D+000.000000D+000.000000D+000.000000D+00*
 *                                              47   S           1.00                                                              *
+                                                                      0.161278D+000.181381D+000.000000D+000.000000D+000.000000D+00 
 *                                          48- 50   P           1.00                                                              *
+                                                                      0.110000D+010.000000D+000.160576D+010.000000D+000.000000D+00 
 *---------------------------------------------------------------------------------------------------------------------------------*
 *     H      3.77622  1.05325  2.49691                                                                                            *
+                                               51   S           1.00                                                               
+                                                                      0.187311D+020.214935D+000.000000D+000.000000D+000.000000D+00 
 *                                                                     0.282539D+010.364571D+000.000000D+000.000000D+000.000000D+00*
 *                                                                     0.640122D+000.415051D+000.000000D+000.000000D+000.000000D+00*
 *                                              52   S           1.00                                                              *
+                                                                      0.161278D+000.181381D+000.000000D+000.000000D+000.000000D+00 
 *                                          53- 55   P           1.00                                                              *
+                                                                      0.110000D+010.000000D+000.160576D+010.000000D+000.000000D+00 
 *---------------------------------------------------------------------------------------------------------------------------------*
 *     H      4.76830 -0.87095 -0.29367                                                                                            *
+                                               56   S           1.00                                                               
+                                                                      0.187311D+020.214935D+000.000000D+000.000000D+000.000000D+00 
 *                                                                     0.282539D+010.364571D+000.000000D+000.000000D+000.000000D+00*
 *                                                                     0.640122D+000.415051D+000.000000D+000.000000D+000.000000D+00*
 *                                              57   S           1.00                                                              *
+                                                                      0.161278D+000.181381D+000.000000D+000.000000D+000.000000D+00 
 *                                          58- 60   P           1.00                                                              *
+                                                                      0.110000D+010.000000D+000.160576D+010.000000D+000.000000D+00 
 *---------------------------------------------------------------------------------------------------------------------------------*
 *     N     -1.03029  0.44389  1.36762                                                                                            *
+                                               61   S           1.00                                                               
+                                                                      0.417351D+040.678998D+000.000000D+000.000000D+000.000000D+00 
 *                                                                     0.627458D+030.125043D+010.000000D+000.000000D+000.000000D+00*
 *                                                                     0.142902D+030.202036D+010.000000D+000.000000D+000.000000D+00*
 *                                                                     0.402343D+020.264421D+010.000000D+000.000000D+000.000000D+00*
 *                                                                     0.128202D+020.226500D+010.000000D+000.000000D+000.000000D+00*
 *                                                                     0.439044D+010.779188D+000.000000D+000.000000D+000.000000D+00*
 *                                          62- 65   SP          1.00                                                              *
+                                                                      0.116264D+02-.515875D+000.206805D+010.000000D+000.000000D+00 
 *                                                                     0.271628D+01-.255023D+000.161001D+010.000000D+000.000000D+00*
 *                                                                     0.772218D+000.672735D+000.764490D+000.000000D+000.000000D+00*
 *                                          66- 69   SP          1.00                                                              *
+                                                                      0.212031D+000.222695D+000.205088D+000.000000D+000.000000D+00 
 *                                          70- 75   D           1.00                                                              *
+                                                                      0.800000D+000.000000D+000.000000D+000.111382D+010.000000D+00 
 *---------------------------------------------------------------------------------------------------------------------------------*
 *     H     -0.45518  0.97104  3.12244                                                                                            *
+                                               76   S           1.00                                                               
+                                                                      0.187311D+020.214935D+000.000000D+000.000000D+000.000000D+00 
 *                                                                     0.282539D+010.364571D+000.000000D+000.000000D+000.000000D+00*
 *                                                                     0.640122D+000.415051D+000.000000D+000.000000D+000.000000D+00*
 *                                              77   S           1.00                                                              *
+                                                                      0.161278D+000.181381D+000.000000D+000.000000D+000.000000D+00 
 *                                          78- 80   P           1.00                                                              *
+                                                                      0.110000D+010.000000D+000.160576D+010.000000D+000.000000D+00 
 *---------------------------------------------------------------------------------------------------------------------------------*
 *     C     -3.71079 -0.08657  1.00830                                                                                            *
+                                               81   S           1.00                                                               
+                                                                      0.304752D+040.536345D+000.000000D+000.000000D+000.000000D+00 
 *                                                                     0.457370D+030.989452D+000.000000D+000.000000D+000.000000D+00*
 *                                                                     0.103949D+030.159728D+010.000000D+000.000000D+000.000000D+00*
 *                                                                     0.292102D+020.207919D+010.000000D+000.000000D+000.000000D+00*
 *                                                                     0.928666D+010.177417D+010.000000D+000.000000D+000.000000D+00*
 *                                                                     0.316393D+010.612580D+000.000000D+000.000000D+000.000000D+00*
 *                                          82- 85   SP          1.00                                                              *
+                                                                      0.786827D+01-.399556D+000.129608D+010.000000D+000.000000D+00 
 *                                                                     0.188129D+01-.184155D+000.993754D+000.000000D+000.000000D+00*
 *                                                                     0.544249D+000.516390D+000.495953D+000.000000D+000.000000D+00*
 *                                          86- 89   SP          1.00                                                              *
+                                                                      0.168714D+000.187618D+000.154128D+000.000000D+000.000000D+00 
 *                                          90- 95   D           1.00                                                              *
+                                                                      0.800000D+000.000000D+000.000000D+000.111382D+010.000000D+00 
 *---------------------------------------------------------------------------------------------------------------------------------*
 *     H     -4.51182  0.43169 -0.83193                                                                                            *
+                                               96   S           1.00                                                               
+                                                                      0.187311D+020.214935D+000.000000D+000.000000D+000.000000D+00 
 *                                                                     0.282539D+010.364571D+000.000000D+000.000000D+000.000000D+00*
 *                                                                     0.640122D+000.415051D+000.000000D+000.000000D+000.000000D+00*
 *                                              97   S           1.00                                                              *
+                                                                      0.161278D+000.181381D+000.000000D+000.000000D+000.000000D+00 
 *                                          98-100   P           1.00                                                              *
+                                                                      0.110000D+010.000000D+000.160576D+010.000000D+000.000000D+00 
 *---------------------------------------------------------------------------------------------------------------------------------*
 *     H     -4.07852 -2.12358  1.42543                                                                                            *
+                                              101   S           1.00                                                               
+                                                                      0.187311D+020.214935D+000.000000D+000.000000D+000.000000D+00 
 *                                                                     0.282539D+010.364571D+000.000000D+000.000000D+000.000000D+00*
 *                                                                     0.640122D+000.415051D+000.000000D+000.000000D+000.000000D+00*
 *                                             102   S           1.00                                                              *
+                                                                      0.161278D+000.181381D+000.000000D+000.000000D+000.000000D+00 
 *                                         103-105   P           1.00                                                              *
+                                                                      0.110000D+010.000000D+000.160576D+010.000000D+000.000000D+00 
 *---------------------------------------------------------------------------------------------------------------------------------*
 *     H     -4.72895  1.31010  2.34499                                                                                            *
+                                              106   S           1.00                                                               
+                                                                      0.187311D+020.214935D+000.000000D+000.000000D+000.000000D+00 
 *                                                                     0.282539D+010.364571D+000.000000D+000.000000D+000.000000D+00*
 *                                                                     0.640122D+000.415051D+000.000000D+000.000000D+000.000000D+00*
 *                                             107   S           1.00                                                              *
+                                                                      0.161278D+000.181381D+000.000000D+000.000000D+000.000000D+00 
 *                                         108-110   P           1.00                                                              *
+                                                                      0.110000D+010.000000D+000.160576D+010.000000D+000.000000D+00 
 ***********************************************************************************************************************************
   110 basis functions,   189 primitive gaussians,   110 cartesian basis functions
    20 alpha electrons       20 beta electrons
       nuclear repulsion energy       177.0801265852 Hartrees.
 NAtoms=   12 NActive=   12 NUniq=   12 SFac= 1.00D+00 NAtFMM=   60 NAOKFM=F Big=F
 Integral buffers will be    131072 words long.
 Raffenetti 2 integral format.
 Two-electron integral symmetry is turned off.
 One-electron integrals computed using PRISM.
 NBasis=   110 RedAO= T EigKep=  3.88D-03  NBF=   110
 NBsUse=   110 1.00D-06 EigRej= -1.00D+00 NBFU=   110
 ExpMin= 1.61D-01 ExpMax= 5.48D+03 ExpMxC= 8.25D+02 IAcc=3 IRadAn=         5 AccDes= 0.00D+00
 Harris functional with IExCor=  402 and IRadAn=       5 diagonalized for initial guess.
 HarFok:  IExCor=  402 AccDes= 0.00D+00 IRadAn=         5 IDoV= 1 UseB2=F ITyADJ=14
 ICtDFT=  3500011 ScaDFX=  1.000000  1.000000  1.000000  1.000000
 FoFCou: FMM=F IPFlag=           0 FMFlag=      100000 FMFlg1=           0
         NFxFlg=           0 DoJE=T BraDBF=F KetDBF=T FulRan=T
         wScrn=  0.000000 ICntrl=       500 IOpCl=  0 I1Cent=   200000004 NGrid=           0
         NMat0=    1 NMatS0=      1 NMatT0=    0 NMatD0=    1 NMtDS0=    0 NMtDT0=    0
 Symmetry not used in FoFCou.
 Keep R1 ints in memory in canonical form, NReq=33599411.
 Requested convergence on RMS density matrix=1.00D-08 within 128 cycles.
 Requested convergence on MAX density matrix=1.00D-06.
 Requested convergence on             energy=1.00D-06.
 No special actions if energy rises.
 Integral accuracy reduced to 1.0D-05 until final iterations.
 Initial convergence to 1.0D-05 achieved.  Increase integral accuracy.
 SCF Done:  E(RB3LYP) =  -248.521815566     A.U. after   14 cycles
            NFock= 14  Conv=0.34D-08     -V/T= 2.0106

 **********************************************************************

            Population analysis using the SCF Density.

 **********************************************************************

 Alpha  occ. eigenvalues --  -19.10064 -14.36037 -10.28211 -10.23103 -10.19855
 Alpha  occ. eigenvalues --   -1.02042  -0.91230  -0.73451  -0.68112  -0.57413
 Alpha  occ. eigenvalues --   -0.49453  -0.45618  -0.45293  -0.42103  -0.39554
 Alpha  occ. eigenvalues --   -0.38588  -0.37596  -0.34856  -0.24907  -0.23735
 Alpha virt. eigenvalues --    0.03361   0.06361   0.10737   0.12787   0.14562
 Alpha virt. eigenvalues --    0.15846   0.16707   0.17766   0.18866   0.23986
 Alpha virt. eigenvalues --    0.31444   0.40628   0.50027   0.53071   0.53291
 Alpha virt. eigenvalues --    0.55553   0.56577   0.61290   0.64809   0.68307
 Alpha virt. eigenvalues --    0.72161   0.73747   0.76102   0.79508   0.82330
 Alpha virt. eigenvalues --    0.83536   0.85489   0.87623   0.88368   0.89496
 Alpha virt. eigenvalues --    0.91038   0.92252   1.04023   1.09050   1.11188
 Alpha virt. eigenvalues --    1.24979   1.26725   1.29385   1.32464   1.43117
 Alpha virt. eigenvalues --    1.46156   1.57089   1.63624   1.69934   1.75341
 Alpha virt. eigenvalues --    1.80246   1.82787   1.87836   1.88977   1.90243
 Alpha virt. eigenvalues --    1.92974   1.97233   2.01331   2.02587   2.04454
 Alpha virt. eigenvalues --    2.05688   2.06877   2.15694   2.18156   2.20324
 Alpha virt. eigenvalues --    2.28119   2.34327   2.37454   2.40267   2.49075
 Alpha virt. eigenvalues --    2.50149   2.57774   2.60102   2.61898   2.64158
 Alpha virt. eigenvalues --    2.66969   2.75803   2.78452   2.80411   2.86001
 Alpha virt. eigenvalues --    2.93183   2.98903   3.07164   3.14643   3.16827
 Alpha virt. eigenvalues --    3.32249   3.36238   3.40256   3.42669   3.49037
 Alpha virt. eigenvalues --    3.99612   4.10719   4.24541   4.45091   4.58566
          Condensed to atoms (all electrons):
               1          2          3          4          5          6
     1  C    4.366816   0.602869   0.335013  -0.017881  -0.024172  -0.023706
     2  O    0.602869   8.052143  -0.086951   0.000370   0.003073   0.003263
     3  C    0.335013  -0.086951   5.162494   0.370014   0.334892   0.372714
     4  H   -0.017881   0.000370   0.370014   0.558011  -0.027974  -0.022461
     5  H   -0.024172   0.003073   0.334892  -0.027974   0.649560  -0.022680
     6  H   -0.023706   0.003263   0.372714  -0.022461  -0.022680   0.540800
     7  N    0.248898  -0.097746  -0.112695   0.000959   0.004739   0.002531
     8  H   -0.016963   0.003487   0.001283  -0.000082   0.002270  -0.000176
     9  C   -0.020693   0.009165   0.006941  -0.000144  -0.000149  -0.000163
    10  H   -0.002533   0.004225   0.000186   0.000010  -0.000008  -0.000010
    11  H   -0.002032   0.001198  -0.000197  -0.000006   0.000001   0.000031
    12  H    0.004862   0.000330  -0.000120   0.000008  -0.000036   0.000000
               7          8          9         10         11         12
     1  C    0.248898  -0.016963  -0.020693  -0.002533  -0.002032   0.004862
     2  O   -0.097746   0.003487   0.009165   0.004225   0.001198   0.000330
     3  C   -0.112695   0.001283   0.006941   0.000186  -0.000197  -0.000120
     4  H    0.000959  -0.000082  -0.000144   0.000010  -0.000006   0.000008
     5  H    0.004739   0.002270  -0.000149  -0.000008   0.000001  -0.000036
     6  H    0.002531  -0.000176  -0.000163  -0.000010   0.000031   0.000000
     7  N    6.999145   0.336070   0.252149  -0.030226  -0.049226  -0.037869
     8  H    0.336070   0.448763  -0.033706   0.003351   0.001675  -0.005791
     9  C    0.252149  -0.033706   4.789330   0.391624   0.391997   0.372256
    10  H   -0.030226   0.003351   0.391624   0.552147  -0.035110  -0.033364
    11  H   -0.049226   0.001675   0.391997  -0.035110   0.591569  -0.027653
    12  H   -0.037869  -0.005791   0.372256  -0.033364  -0.027653   0.629361
 Mulliken charges:
               1
     1  C    0.549521
     2  O   -0.495425
     3  C   -0.383573
     4  H    0.139176
     5  H    0.080484
     6  H    0.149856
     7  N   -0.516729
     8  H    0.259820
     9  C   -0.158608
    10  H    0.149707
    11  H    0.127753
    12  H    0.098017
 Sum of Mulliken charges =   0.00000
 Mulliken charges with hydrogens summed into heavy atoms:
               1
     1  C    0.549521
     2  O   -0.495425
     3  C   -0.014057
     7  N   -0.256910
     9  C    0.216870
 Electronic spatial extent (au):  <R**2>=            475.4234
 Charge=              0.0000 electrons
 Dipole moment (field-independent basis, Debye):
    X=             -0.4116    Y=              1.4369    Z=              3.3000  Tot=              3.6227
 Quadrupole moment (field-independent basis, Debye-Ang):
   XX=            -26.6798   YY=            -31.0828   ZZ=            -32.1152
   XY=              0.3177   XZ=             -0.1704   YZ=             -1.0794
 Traceless Quadrupole moment (field-independent basis, Debye-Ang):
   XX=              3.2795   YY=             -1.1236   ZZ=             -2.1559
   XY=              0.3177   XZ=             -0.1704   YZ=             -1.0794
 Octapole moment (field-independent basis, Debye-Ang**2):
  XXX=             -3.5637  YYY=             -3.7794  ZZZ=              2.9557  XYY=              0.4872
  XXY=             -0.5161  XXZ=             -3.7780  XZZ=             -1.6806  YZZ=              3.6078
  YYZ=             -1.5140  XYZ=             -0.6849
 Hexadecapole moment (field-independent basis, Debye-Ang**3):
 XXXX=           -407.8593 YYYY=            -63.1015 ZZZZ=           -134.6611 XXXY=            -19.6556
 XXXZ=             24.9848 YYYX=            -12.5358 YYYZ=            -19.5325 ZZZX=             30.2569
 ZZZY=            -16.0038 XXYY=            -75.7966 XXZZ=            -93.0838 YYZZ=            -33.7262
 XXYZ=             -5.9392 YYXZ=              7.0496 ZZXY=             -5.5766
 N-N= 1.770801265852D+02 E-N=-9.333233530506D+02  KE= 2.459037029399D+02
 Calling FoFJK, ICntrl=      2127 FMM=F ISym2X=0 I1Cent= 0 IOpClX= 0 NMat=1 NMatS=1 NMatT=0.
 -------------------------------------------------------------------
 Center     Atomic                   Forces (Hartrees/Bohr)
 Number     Number              X              Y              Z
 -------------------------------------------------------------------
      1        6           0.018154584   -0.010773745    0.002957327
      2        8          -0.007124020    0.005481002   -0.005133489
      3        6          -0.022897720    0.014089658    0.030850436
      4        1          -0.004227208   -0.011439449    0.002634021
      5        1           0.002625085   -0.007704076   -0.033181558
      6        1           0.002721755    0.003005435    0.002935189
      7        7           0.010744527    0.011107517   -0.003492997
      8        1          -0.004474107    0.000758516   -0.006839115
      9        6          -0.013191724    0.016165303    0.027372927
     10        1           0.014168420   -0.005280399   -0.003421249
     11        1          -0.006724100    0.015763785   -0.001454112
     12        1           0.010224508   -0.031173547   -0.013227380
 -------------------------------------------------------------------
 Cartesian Forces:  Max     0.033181558 RMS     0.013818835
 TRJ-TRJ-TRJ-TRJ-TRJ-TRJ-TRJ-TRJ-TRJ-TRJ-TRJ-TRJ-TRJ-TRJ-TRJ-TRJ-TRJ-TRJ

 ADMP step      0
 masses (1st pwr) of o.n. basis functions 
                 1 
      1   0.456143D+01
      2   0.100000D+00
      3   0.100000D+00
      4   0.100000D+00
      5   0.100000D+00
      6   0.100000D+00
      7   0.100000D+00
      8   0.100000D+00
      9   0.100000D+00
     10   0.100000D+00
     11   0.100000D+00
     12   0.100000D+00
     13   0.100000D+00
     14   0.100000D+00
     15   0.100000D+00
     16   0.843927D+01
     17   0.100000D+00
     18   0.100000D+00
     19   0.100000D+00
     20   0.100000D+00
     21   0.100000D+00
     22   0.100000D+00
     23   0.100000D+00
     24   0.100000D+00
     25   0.100000D+00
     26   0.100000D+00
     27   0.100000D+00
     28   0.100000D+00
     29   0.100000D+00
     30   0.100000D+00
     31   0.439661D+01
     32   0.100000D+00
     33   0.100000D+00
     34   0.100000D+00
     35   0.100000D+00
     36   0.100000D+00
     37   0.100000D+00
     38   0.100000D+00
     39   0.100000D+00
     40   0.100000D+00
     41   0.100000D+00
     42   0.100000D+00
     43   0.100000D+00
     44   0.100000D+00
     45   0.100000D+00
     46   0.100000D+00
     47   0.100000D+00
     48   0.100000D+00
     49   0.100000D+00
     50   0.100000D+00
     51   0.100000D+00
     52   0.100000D+00
     53   0.100000D+00
     54   0.100000D+00
     55   0.100000D+00
     56   0.100000D+00
     57   0.100000D+00
     58   0.100000D+00
     59   0.100000D+00
     60   0.100000D+00
     61   0.627451D+01
     62   0.100000D+00
     63   0.100000D+00
     64   0.100000D+00
     65   0.100000D+00
     66   0.100000D+00
     67   0.100000D+00
     68   0.100000D+00
     69   0.100000D+00
     70   0.100000D+00
     71   0.100000D+00
     72   0.100000D+00
     73   0.100000D+00
     74   0.100000D+00
     75   0.100000D+00
     76   0.100000D+00
     77   0.100000D+00
     78   0.100000D+00
     79   0.100000D+00
     80   0.100000D+00
     81   0.433236D+01
     82   0.100000D+00
     83   0.100000D+00
     84   0.100000D+00
     85   0.100000D+00
     86   0.100000D+00
     87   0.100000D+00
     88   0.100000D+00
     89   0.100000D+00
     90   0.100000D+00
     91   0.100000D+00
     92   0.100000D+00
     93   0.100000D+00
     94   0.100000D+00
     95   0.100000D+00
     96   0.100000D+00
     97   0.100000D+00
     98   0.100000D+00
     99   0.100000D+00
    100   0.100000D+00
    101   0.100000D+00
    102   0.100000D+00
    103   0.100000D+00
    104   0.100000D+00
    105   0.100000D+00
    106   0.100000D+00
    107   0.100000D+00
    108   0.100000D+00
    109   0.100000D+00
    110   0.100000D+00
 Frobenius norm of [F,P] =     2.738237D-13
 Current gradient on entry to l121
 I=    1 X=  -1.815458378920D-02 Y=   1.077374452321D-02 Z=  -2.957327087599D-03
 I=    2 X=   7.124020222529D-03 Y=  -5.481001573658D-03 Z=   5.133489079842D-03
 I=    3 X=   2.289772009370D-02 Y=  -1.408965810414D-02 Z=  -3.085043616435D-02
 I=    4 X=   4.227207540918D-03 Y=   1.143944898386D-02 Z=  -2.634021105015D-03
 I=    5 X=  -2.625085107537D-03 Y=   7.704075870226D-03 Z=   3.318155803409D-02
 I=    6 X=  -2.721754625958D-03 Y=  -3.005434846566D-03 Z=  -2.935189400088D-03
 I=    7 X=  -1.074452690304D-02 Y=  -1.110751720729D-02 Z=   3.492997250701D-03
 I=    8 X=   4.474106533473D-03 Y=  -7.585162136015D-04 Z=   6.839115412637D-03
 I=    9 X=   1.319172446550D-02 Y=  -1.616530268808D-02 Z=  -2.737292700192D-02
 I=   10 X=  -1.416842014651D-02 Y=   5.280398972443D-03 Z=   3.421248731853D-03
 I=   11 X=   6.724100184371D-03 Y=  -1.576378519632D-02 Z=   1.454112068575D-03
 I=   12 X=  -1.022450846822D-02 Y=   3.117354747996D-02 Z=   1.322738018124D-02

 Summary information for step      0
 Time (fs)     0.000000
 EKinC      =      0.0156579; EKinPA =      0.0000000; EKinPB =      0.0000000
 EKin       =      0.0156579; EPot   =   -248.5218156; ETot   =   -248.5061577
 ETot-EKinP =   -248.5061577
 Integrand for the Velocity-Velocity Auto-Correlation  Function =   2.936112993643D-02
 Angular momentum
   JX = -0.9361476212D-11  JY = -0.3126943313D-10  JZ =  0.8219728281D-11
 Jtot =  0.3365974774D-10 H-BAR;  J (Quantum Number) =  0.0000000000D+00
 Total energy  -2.485061577D+02 A.U.
 Total angular momentum   3.365975D-11 h-bar
 Tr(PA)-NA =  5.684D-14
 Tr(PA**2-PA) =  5.684D-14
 Tr[(PA**2-PA)**2] =  2.714D-16
 Cartesian coordinates:
 I=    1 X=   8.191117303808D-01 Y=   5.206835053976D-03 Z=  -3.921049752436D-01
 I=    2 X=   4.259679550690D-01 Y=  -1.068385878099D+00 Z=  -2.397665029570D+00
 I=    3 X=   3.611422263894D+00 Y=   7.134239044606D-01 Z=   3.404216726893D-01
 I=    4 X=   4.214839059779D+00 Y=   2.491119420700D+00 Z=  -6.038616779414D-01
 I=    5 X=   3.776215023697D+00 Y=   1.053251381751D+00 Z=   2.496909629185D+00
 I=    6 X=   4.768299612208D+00 Y=  -8.709543268885D-01 Z=  -2.936659573940D-01
 I=    7 X=  -1.030286667625D+00 Y=   4.438875196309D-01 Z=   1.367616308595D+00
 I=    8 X=  -4.551802596978D-01 Y=   9.710437759606D-01 Z=   3.122438913724D+00
 I=    9 X=  -3.710791026224D+00 Y=  -8.656870684670D-02 Z=   1.008297173754D+00
 I=   10 X=  -4.511823408894D+00 Y=   4.316884121698D-01 Z=  -8.319308367039D-01
 I=   11 X=  -4.078516735182D+00 Y=  -2.123575551008D+00 Z=   1.425425691151D+00
 I=   12 X=  -4.728946236662D+00 Y=   1.310103067626D+00 Z=   2.344990701553D+00
 MW Cartesian velocity:
 I=    1 X=   7.958592772485D+12 Y=  -3.161799914307D+12 Z=  -3.856483055509D+13
 I=    2 X=  -2.281077377089D+13 Y=   1.285003370936D+13 Z=   3.266931383075D+13
 I=    3 X=   3.039292928663D+13 Y=  -7.278427666398D+12 Z=   1.411055659112D+13
 I=    4 X=   1.049680708915D+13 Y=  -2.545157712027D+13 Z=  -3.631523368091D+13
 I=    5 X=   6.477452174373D+13 Y=   9.461683629980D+12 Z=  -9.040925743551D+12
 I=    6 X=   3.313907193127D+13 Y=   1.666165617364D+13 Z=   2.895949538486D+11
 I=    7 X=  -3.701842360848D+13 Y=   1.809402497226D+13 Z=  -3.376042189925D+12
 I=    8 X=   1.406133722176D+13 Y=  -1.380398808968D+12 Z=   5.452914755207D+13
 I=    9 X=  -3.734428546703D+13 Y=  -2.924246197894D+13 Z=  -8.161446287435D+12
 I=   10 X=   7.375102593617D+13 Y=   1.763549943505D+13 Z=   2.536795951970D+13
 I=   11 X=   3.924676581787D+13 Y=  -2.032437880712D+13 Z=  -2.830634806975D+13
 I=   12 X=  -1.008474582512D+13 Y=   2.168991432280D+13 Z=  -1.154353217802D+13
 TRJ-TRJ-TRJ-TRJ-TRJ-TRJ-TRJ-TRJ-TRJ-TRJ-TRJ-TRJ-TRJ-TRJ-TRJ-TRJ-TRJ-TRJ
                          Input orientation:                          
 ---------------------------------------------------------------------
 Center     Atomic      Atomic             Coordinates (Angstroms)
 Number     Number       Type             X           Y           Z
 ---------------------------------------------------------------------
      1          6           0        0.433713    0.002650   -0.208669
      2          8           0        0.224804   -0.565022   -1.267928
      3          6           0        1.911992    0.377317    0.180600
      4          1           0        2.231462    1.315448   -0.323352
      5          1           0        2.005142    0.558278    1.320028
      6          1           0        2.526796   -0.459103   -0.155342
      7          7           0       -0.546244    0.235415    0.723613
      8          1           0       -0.239433    0.513716    1.658005
      9          6           0       -1.964818   -0.046690    0.533341
     10          1           0       -2.379640    0.230247   -0.437598
     11          1           0       -2.154187   -1.125735    0.751304
     12          1           0       -2.503413    0.695256    1.239568
 ---------------------------------------------------------------------
                    Distance matrix (angstroms):
                    1          2          3          4          5
     1  C    0.000000
     2  O    1.219805   0.000000
     3  C    1.573917   2.415127   0.000000
     4  H    2.229011   2.907759   1.111809   0.000000
     5  H    2.261642   3.336004   1.157463   1.823520   0.000000
     6  H    2.144074   2.558951   1.091073   1.806787   1.866522
     7  N    1.372460   2.280669   2.521492   3.158838   2.639984
     8  H    2.049094   3.152821   2.613419   3.267089   2.270314
     9  C    2.511168   2.882306   3.915848   4.494230   4.092119
    10  H    2.831813   2.846933   4.338421   4.738456   4.735310
    11  H    2.981950   3.170378   4.372491   5.133047   4.523202
    12  H    3.347209   3.913951   4.551736   5.024579   4.511353
                    6          7          8          9         10
     6  H    0.000000
     7  N    3.270855   0.000000
     8  H    3.447698   1.022092   0.000000
     9  C    4.562780   1.458815   2.134450   0.000000
    10  H    4.962659   2.170203   3.008719   1.091556   0.000000
    11  H    4.814354   2.106888   2.678841   1.117008   1.817417
    12  H    5.346150   2.075615   2.309470   1.157293   1.744833
                   11         12
    11  H    0.000000
    12  H    1.917387   0.000000
 Symmetry turned off by external request.
 Stoichiometry    C3H7NO
 Framework group  C1[X(C3H7NO)]
 Deg. of freedom    30
 Full point group                 C1      NOp   1
 Rotational constants (GHZ):           9.9696045           3.6414244           2.7684696
 Standard basis: 6-31G(d,p) (6D, 7F)
   110 basis functions,   189 primitive gaussians,   110 cartesian basis functions
    20 alpha electrons       20 beta electrons
       nuclear repulsion energy       177.0562707254 Hartrees.
 NAtoms=   12 NActive=   12 NUniq=   12 SFac= 1.00D+00 NAtFMM=   60 NAOKFM=F Big=F
 Integral buffers will be    131072 words long.
 Raffenetti 2 integral format.
 Two-electron integral symmetry is turned off.
 One-electron integrals computed using PRISM.
 NBasis=   110 RedAO= T EigKep=  3.88D-03  NBF=   110
 NBsUse=   110 1.00D-06 EigRej= -1.00D+00 NBFU=   110
 Keep R1 ints in memory in canonical form, NReq=33599411.
 Requested convergence on RMS density matrix=1.00D-08 within 128 cycles.
 Requested convergence on MAX density matrix=1.00D-06.
 Requested convergence on             energy=1.00D-06.
 No special actions if energy rises.
 SCF Done:  E(RB3LYP) =  -248.521480586     A.U. after    1 cycles
            NFock=  1  Conv=0.20D+01     -V/T= 2.0106
 Calling FoFJK, ICntrl=      2127 FMM=F ISym2X=0 I1Cent= 0 IOpClX= 0 NMat=1 NMatS=1 NMatT=0.
 -------------------------------------------------------------------
 Center     Atomic                   Forces (Hartrees/Bohr)
 Number     Number              X              Y              Z
 -------------------------------------------------------------------
      1        6           0.003472047    0.002139703    0.047619639
      2        8           0.002514267   -0.003196370   -0.031481839
      3        6          -0.021523138    0.014459559    0.016728457
      4        1          -0.004718586   -0.009164161    0.004637951
      5        1          -0.002675971   -0.008548604   -0.030786124
      6        1           0.000147273    0.000476835    0.003256978
      7        7           0.026308499    0.003043905   -0.000050833
      8        1          -0.007684839    0.000286759   -0.018507670
      9        6          -0.003530073    0.023676961    0.032170143
     10        1           0.006838740   -0.005168170   -0.011593665
     11        1          -0.009583177    0.015336700    0.000462356
     12        1           0.010434956   -0.033343117   -0.012455394
 -------------------------------------------------------------------
 Cartesian Forces:  Max     0.047619639 RMS     0.016693906
 TRJ-TRJ-TRJ-TRJ-TRJ-TRJ-TRJ-TRJ-TRJ-TRJ-TRJ-TRJ-TRJ-TRJ-TRJ-TRJ-TRJ-TRJ

 ADMP step      1
 Frobenius norm of [F,P] =     3.374859D-02
 Current gradient on entry to l121
 I=    1 X=  -3.472047411974D-03 Y=  -2.139702988630D-03 Z=  -4.761963939381D-02
 I=    2 X=  -2.514266793761D-03 Y=   3.196370159365D-03 Z=   3.148183900418D-02
 I=    3 X=   2.152313811059D-02 Y=  -1.445955858921D-02 Z=  -1.672845708216D-02
 I=    4 X=   4.718586063545D-03 Y=   9.164160961498D-03 Z=  -4.637951039707D-03
 I=    5 X=   2.675970913477D-03 Y=   8.548604060303D-03 Z=   3.078612382160D-02
 I=    6 X=  -1.472734913959D-04 Y=  -4.768347088255D-04 Z=  -3.256978290657D-03
 I=    7 X=  -2.630849944203D-02 Y=  -3.043904703543D-03 Z=   5.083309277776D-05
 I=    8 X=   7.684838707964D-03 Y=  -2.867592298343D-04 Z=   1.850766958151D-02
 I=    9 X=   3.530072582713D-03 Y=  -2.367696110142D-02 Z=  -3.217014263208D-02
 I=   10 X=  -6.838739667848D-03 Y=   5.168169839581D-03 Z=   1.159366499002D-02
 I=   11 X=   9.583176747522D-03 Y=  -1.533670040060D-02 Z=  -4.623557250730D-04
 I=   12 X=  -1.043495631874D-02 Y=   3.334311670126D-02 Z=   1.245539367336D-02

 Summary information for step      1
 Time (fs)     0.200000
 EKinC      =      0.0153262; EKinPA =      0.0000319; EKinPB =      0.0000319
 EKin       =      0.0153900; EPot   =   -248.5214806; ETot   =   -248.5060906
 ETot-EKinP =   -248.5061544
 Adiabaticity Index =    1.7385D-26
 Total Fictitiious Kinetic Energy =      0.0006374
 Integrand for the Velocity-Velocity Auto-Correlation  Function =   2.898753035560D-02
 Angular momentum
   JX = -0.9362014241D-11  JY = -0.3127245679D-10  JZ =  0.8217093689D-11
 Jtot =  0.3366206311D-10 H-BAR;  J (Quantum Number) =  0.0000000000D+00
 Total energy  -2.485060906D+02  Delta-E   6.704908D-05 A.U.
 Total angular momentum   3.366206D-11  Delta-A   2.315367D-15 h-bar
 Tr(PA)-NA =  0.000D+00
 Tr(PA**2-PA) = -7.105D-15
 Tr[(PA**2-PA)**2] =  1.456D-16
 Cartesian coordinates:
 I=    1 X=   8.195995890064D-01 Y=   5.007453035255D-03 Z=  -3.943268955449D-01
 I=    2 X=   4.248188832555D-01 Y=  -1.067736848515D+00 Z=  -2.396037322528D+00
 I=    3 X=   3.613141219635D+00 Y=   7.130257012953D-01 Z=   3.412845541860D-01
 I=    4 X=   4.216851603761D+00 Y=   2.485836062669D+00 Z=  -6.110474629646D-01
 I=    5 X=   3.789168379553D+00 Y=   1.054993014215D+00 Z=   2.494491100039D+00
 I=    6 X=   4.774952287609D+00 Y=  -8.675790375990D-01 Z=  -2.935536514081D-01
 I=    7 X=  -1.032250780300D+00 Y=   4.448694539429D-01 Z=   1.367431193848D+00
 I=    8 X=  -4.524621769815D-01 Y=   9.707828816307D-01 Z=   3.133175074094D+00
 I=    9 X=  -3.712967713448D+00 Y=  -8.823176067368D-02 Z=   1.007868746359D+00
 I=   10 X=  -4.496866958918D+00 Y=   4.351035460846D-01 Z=  -8.269406360307D-01
 I=   11 X=  -4.070823022847D+00 Y=  -2.127331314026D+00 Z=   1.419759385007D+00
 I=   12 X=  -4.730765102829D+00 Y=   1.313844158963D+00 Z=   2.342444865808D+00
 MW Cartesian velocity:
 I=    1 X=   8.542910708282D+12 Y=  -3.398955586719D+12 Z=  -3.719591225865D+13
 I=    2 X=  -2.292148691441D+13 Y=   1.289486043242D+13 Z=   3.181436186074D+13
 I=    3 X=   2.919039596188D+13 Y=  -6.506953780949D+12 Z=   1.539325267101D+13
 I=    4 X=   9.657688476316D+12 Y=  -2.739112031645D+13 Z=  -3.567586578612D+13
 I=    5 X=   6.477624057668D+13 Y=   7.964148022171D+12 Z=  -1.503706417500D+13
 I=    6 X=   3.340361774296D+13 Y=   1.697507585139D+13 Z=   8.646249690025D+11
 I=    7 X=  -3.608937597973D+13 Y=   1.845091443869D+13 Z=  -3.464493659098D+12
 I=    8 X=   1.293437225235D+13 Y=  -1.254049070642D+12 Z=   5.215521252963D+13
 I=    9 X=  -3.779653138527D+13 Y=  -2.816259428103D+13 Z=  -6.545118120070D+12
 I=   10 X=   7.570808374429D+13 Y=   1.664406855558D+13 Z=   2.397871761922D+13
 I=   11 X=   3.772582802542D+13 Y=  -1.740977968930D+13 Z=  -2.835801787175D+13
 I=   12 X=  -8.149260759974D+12 Y=   1.568521049436D+13 Z=  -1.393835549818D+13
 TRJ-TRJ-TRJ-TRJ-TRJ-TRJ-TRJ-TRJ-TRJ-TRJ-TRJ-TRJ-TRJ-TRJ-TRJ-TRJ-TRJ-TRJ
                          Input orientation:                          
 ---------------------------------------------------------------------
 Center     Atomic      Atomic             Coordinates (Angstroms)
 Number     Number       Type             X           Y           Z
 ---------------------------------------------------------------------
      1          6           0        0.433977    0.002548   -0.209766
      2          8           0        0.224199   -0.564683   -1.267106
      3          6           0        1.912866    0.377130    0.181084
      4          1           0        2.232433    1.312468   -0.327072
      5          1           0        2.011945    0.559036    1.318137
      6          1           0        2.530319   -0.457310   -0.155219
      7          7           0       -0.547246    0.235939    0.723515
      8          1           0       -0.238144    0.513590    1.663320
      9          6           0       -1.965976   -0.047531    0.533168
     10          1           0       -2.371591    0.231949   -0.435183
     11          1           0       -2.150304   -1.127419    0.748324
     12          1           0       -2.504169    0.696584    1.237977
 ---------------------------------------------------------------------
                    Distance matrix (angstroms):
                    1          2          3          4          5
     1  C    0.000000
     2  O    1.218083   0.000000
     3  C    1.574861   2.415753   0.000000
     4  H    2.228025   2.905230   1.111397   0.000000
     5  H    2.265866   3.338002   1.155767   1.822907   0.000000
     6  H    2.146879   2.562422   1.091163   1.802882   1.863451
     7  N    1.374148   2.280065   2.523156   3.160580   2.647154
     8  H    2.054595   3.156554   2.615815   3.271639   2.276865
     9  C    2.512814   2.881891   3.917871   4.496248   4.099750
    10  H    2.823943   2.839867   4.330986   4.730354   4.732495
    11  H    2.978803   3.164947   4.369757   5.130098   4.526934
    12  H    3.348186   3.912828   4.552941   5.026340   4.518919
                    6          7          8          9         10
     6  H    0.000000
     7  N    3.274778   0.000000
     8  H    3.451683   1.027554   0.000000
     9  C    4.567106   1.459240   2.139510   0.000000
    10  H    4.958042   2.161211   3.005767   1.086433   0.000000
    11  H    4.813903   2.104556   2.680762   1.116434   1.815912
    12  H    5.349629   2.075190   2.312850   1.157633   1.741530
                   11         12
    11  H    0.000000
    12  H    1.921449   0.000000
 Symmetry turned off by external request.
 Stoichiometry    C3H7NO
 Framework group  C1[X(C3H7NO)]
 Deg. of freedom    30
 Full point group                 C1      NOp   1
 Rotational constants (GHZ):           9.9737894           3.6389250           2.7673183
 Standard basis: 6-31G(d,p) (6D, 7F)
   110 basis functions,   189 primitive gaussians,   110 cartesian basis functions
    20 alpha electrons       20 beta electrons
       nuclear repulsion energy       177.0398132870 Hartrees.
 NAtoms=   12 NActive=   12 NUniq=   12 SFac= 1.00D+00 NAtFMM=   60 NAOKFM=F Big=F
 Integral buffers will be    131072 words long.
 Raffenetti 2 integral format.
 Two-electron integral symmetry is turned off.
 One-electron integrals computed using PRISM.
 NBasis=   110 RedAO= T EigKep=  3.88D-03  NBF=   110
 NBsUse=   110 1.00D-06 EigRej= -1.00D+00 NBFU=   110
 Keep R1 ints in memory in canonical form, NReq=33599411.
 Requested convergence on RMS density matrix=1.00D-08 within 128 cycles.
 Requested convergence on MAX density matrix=1.00D-06.
 Requested convergence on             energy=1.00D-06.
 No special actions if energy rises.
 SCF Done:  E(RB3LYP) =  -248.521314845     A.U. after    1 cycles
            NFock=  1  Conv=0.20D+01     -V/T= 2.0107
 Calling FoFJK, ICntrl=      2127 FMM=F ISym2X=0 I1Cent= 0 IOpClX= 0 NMat=1 NMatS=1 NMatT=0.
 -------------------------------------------------------------------
 Center     Atomic                   Forces (Hartrees/Bohr)
 Number     Number              X              Y              Z
 -------------------------------------------------------------------
      1        6           0.006769463    0.002867055    0.047519497
      2        8           0.000386743   -0.002973234   -0.029534941
      3        6          -0.022306578    0.013891974    0.013163805
      4        1          -0.004498366   -0.008251686    0.005292412
      5        1          -0.003979364   -0.008322240   -0.029024364
      6        1          -0.000306138   -0.000051943    0.003386283
      7        7           0.028057041    0.003098529    0.004624679
      8        1          -0.007927450   -0.000695047   -0.022744514
      9        6           0.000752664    0.024458866    0.033236116
     10        1           0.003495259   -0.005150133   -0.015327579
     11        1          -0.010718232    0.014835987    0.001084059
     12        1           0.010274957   -0.033708127   -0.011675453
 -------------------------------------------------------------------
 Cartesian Forces:  Max     0.047519497 RMS     0.016834941
 TRJ-TRJ-TRJ-TRJ-TRJ-TRJ-TRJ-TRJ-TRJ-TRJ-TRJ-TRJ-TRJ-TRJ-TRJ-TRJ-TRJ-TRJ

 ADMP step      2
 Frobenius norm of [F,P] =     3.108548D-02
 Current gradient on entry to l121
 I=    1 X=  -6.769462993449D-03 Y=  -2.867054892548D-03 Z=  -4.751949709612D-02
 I=    2 X=  -3.867431976166D-04 Y=   2.973234060544D-03 Z=   2.953494059185D-02
 I=    3 X=   2.230657776021D-02 Y=  -1.389197426380D-02 Z=  -1.316380531715D-02
 I=    4 X=   4.498365852035D-03 Y=   8.251685961824D-03 Z=  -5.292411995087D-03
 I=    5 X=   3.979363862657D-03 Y=   8.322240347264D-03 Z=   2.902436379243D-02
 I=    6 X=   3.061382152656D-04 Y=   5.194307416545D-05 Z=  -3.386282577119D-03
 I=    7 X=  -2.805704097624D-02 Y=  -3.098528700574D-03 Z=  -4.624679487801D-03
 I=    8 X=   7.927450080774D-03 Y=   6.950469585822D-04 Z=   2.274451417295D-02
 I=    9 X=  -7.526639047608D-04 Y=  -2.445886621909D-02 Z=  -3.323611623758D-02
 I=   10 X=  -3.495259112308D-03 Y=   5.150133081391D-03 Z=   1.532757941733D-02
 I=   11 X=   1.071823186517D-02 Y=  -1.483598661678D-02 Z=  -1.084058648436D-03
 I=   12 X=  -1.027495745170D-02 Y=   3.370812720896D-02 Z=   1.167545338462D-02

 Summary information for step      2
 Time (fs)     0.400000
 EKinC      =      0.0147016; EKinPA =      0.0002580; EKinPB =      0.0002580
 EKin       =      0.0152175; EPot   =   -248.5213148; ETot   =   -248.5060973
 ETot-EKinP =   -248.5066133
 Adiabaticity Index =    9.8444D-04
 Integrand for the Velocity-Velocity Auto-Correlation  Function =   2.820187537947D-02
 Angular momentum
   JX = -0.9365513542D-11  JY = -0.3127178425D-10  JZ =  0.8211534922D-11
 Jtot =  0.3366105524D-10 H-BAR;  J (Quantum Number) =  0.0000000000D+00
 Total energy  -2.485060973D+02  Delta-E  -6.676467D-06 A.U.
 Total angular momentum   3.366106D-11  Delta-A  -1.007869D-15 h-bar
 Tr(PA)-NA =  0.000D+00
 Tr(PA**2-PA) = -1.098D-10
 Tr[(PA**2-PA)**2] =  5.180D-13
 Cartesian coordinates:
 I=    1 X=   8.200981807402D-01 Y=   4.814357469384D-03 Z=  -3.963999892347D-01
 I=    2 X=   4.236754420281D-01 Y=  -1.067096187085D+00 Z=  -2.394483087677D+00
 I=    3 X=   3.614792880487D+00 Y=   7.126725461572D-01 Z=   3.421991324039D-01
 I=    4 X=   4.218687108944D+00 Y=   2.480205589930D+00 Z=  -6.180765168112D-01
 I=    5 X=   3.802024735728D+00 Y=   1.056424649684D+00 Z=   2.490918199416D+00
 I=    6 X=   4.781609087211D+00 Y=  -8.641907077664D-01 Z=  -2.933214526610D-01
 I=    7 X=  -1.034144360705D+00 Y=   4.458597888382D-01 Z=   1.367245979299D+00
 I=    8 X=  -4.500266351565D-01 Y=   9.705441074850D-01 Z=   3.143219851369D+00
 I=    9 X=  -3.715155393738D+00 Y=  -8.982064312455D-02 Z=   1.007541408612D+00
 I=   10 X=  -4.481657968257D+00 Y=   4.383201433820D-01 Z=  -8.223766577163D-01
 I=   11 X=  -4.063485100916D+00 Y=  -2.130512375317D+00 Z=   1.414126605738D+00
 I=   12 X=  -4.732193261676D+00 Y=   1.316352747484D+00 Z=   2.339437045793D+00
 MW Cartesian velocity:
 I=    1 X=   8.819004787408D+12 Y=  -3.270067395451D+12 Z=  -3.462013322819D+13
 I=    2 X=  -2.285634827485D+13 Y=   1.273355565946D+13 Z=   3.039083672844D+13
 I=    3 X=   2.800386970299D+13 Y=  -5.741913367156D+12 Z=   1.619569621830D+13
 I=    4 X=   8.793415989502D+12 Y=  -2.904680451350D+13 Z=  -3.481211284340D+13
 I=    5 X=   6.416168980230D+13 Y=   6.427487054555D+12 Z=  -2.065392136141D+13
 I=    6 X=   3.338496078697D+13 Y=   1.699237056688D+13 Z=   1.492609712774D+12
 I=    7 X=  -3.472650921685D+13 Y=   1.860924331148D+13 Z=  -3.349984273594D+12
 I=    8 X=   1.148555075118D+13 Y=  -1.237217709610D+12 Z=   4.828862745107D+13
 I=    9 X=  -3.787136058599D+13 Y=  -2.685691376889D+13 Z=  -4.768782379058D+12
 I=   10 X=   7.666806400425D+13 Y=   1.565052359016D+13 Z=   2.147670248832D+13
 I=   11 X=   3.583155689081D+13 Y=  -1.457289763184D+13 Z=  -2.814676772939D+13
 I=   12 X=  -8.149260759974D+12 Y=   1.568521049436D+13 Z=  -1.393835549818D+13
